<?xml version="1.0"?> 
<VTKFile type="StructuredGrid" version="0.1"> 
<StructuredGrid WholeExtent="0 29 0 29 0 19"> 
<Piece Extent="0 29 0 29 0 19"> 
<PointData>
<DataArray type="Float32" Name="displacement" format="ascii" NumberOfComponents="3"> 
1.66667 0 0 1.66465 0.0820561 0 1.65843 0.165495 0 1.64781 0.250026 0 1.63258 0.335329 0 1.6126 0.421055 0 1.58774 0.506825 0 1.55789 0.592241 0 1.52302 0.676885 0 1.48313 0.760326 0 1.43826 0.842127 0 1.38851 0.921854 0 1.33403 0.999076 0 1.275 1.07338 0 1.21169 1.14437 0 1.14437 1.21169 0 1.07338 1.275 0 0.999076 1.33403 0 0.921854 1.38851 0 0.842127 1.43826 0 0.760326 1.48313 0 0.676885 1.52302 0 0.592241 1.55789 0 0.506825 1.58774 0 0.421055 1.6126 0 0.335329 1.63258 0 0.250026 1.64781 0 0.165495 1.65843 0 0.0820561 1.66465 0 0 1.66667 0 1.63374 0 0 1.63176 0.0804349 0 1.62566 0.162225 0 1.61525 0.245086 0 1.60033 0.328704 0 1.58074 0.412736 0 1.55637 0.496812 0 1.52711 0.58054 0 1.49293 0.663511 0 1.45383 0.745304 0 1.40985 0.825489 0 1.36108 0.90364 0 1.30767 0.979337 0 1.24981 1.05217 0 1.18775 1.12176 0 1.12176 1.18775 0 1.05217 1.24981 0 0.979337 1.30767 0 0.90364 1.36108 0 0.825489 1.40985 0 0.745304 1.45383 0 0.663511 1.49293 0 0.58054 1.52711 0 0.496812 1.55637 0 0.412736 1.58074 0 0.328704 1.60033 0 0.245086 1.61525 0 0.162225 1.62566 0 0.0804349 1.63176 0 0 1.63374 0 1.60363 0 0 1.60168 0.0789525 0 1.5957 0.159235 0 1.58548 0.240569 0 1.57084 0.322646 0 1.55161 0.405129 0 1.52768 0.487656 0 1.49897 0.569841 0 1.46542 0.651283 0 1.42704 0.731568 0 1.38386 0.810276 0 1.33599 0.886986 0 1.28357 0.961288 0 1.22678 1.03278 0 1.16586 1.10109 0 1.10109 1.16586 0 1.03278 1.22678 0 0.961288 1.28357 0 0.886986 1.33599 0 0.810276 1.38386 0 0.731568 1.42704 0 0.651283 1.46542 0 0.569841 1.49897 0 0.487656 1.52768 0 0.405129 1.55161 0 0.322646 1.57084 0 0.240569 1.58548 0 0.159235 1.5957 0 0.0789525 1.60168 0 0 1.60363 0 1.57612 0 0 1.57421 0.0775983 0 1.56833 0.156504 0 1.55829 0.236443 0 1.54389 0.317112 0 1.525 0.398181 0 1.50148 0.479292 0 1.47326 0.560067 0 1.44028 0.640112 0 1.40256 0.71902 0 1.36013 0.796378 0 1.31308 0.871773 0 1.26155 0.9448 0 1.20574 1.01507 0 1.14586 1.0822 0 1.0822 1.14586 0 1.01507 1.20574 0 0.9448 1.26155 0 0.871773 1.31308 0 0.796378 1.36013 0 0.71902 1.40256 0 0.640112 1.44028 0 0.560067 1.47326 0 0.479292 1.50148 0 0.398181 1.525 0 0.317112 1.54389 0 0.236443 1.55829 0 0.156504 1.56833 0 0.0775983 1.57421 0 0 1.57612 0 1.55101 0 0 1.54913 0.0763618 0 1.54334 0.15401 0 1.53346 0.232675 0 1.51929 0.312059 0 1.5007 0.391836 0 1.47755 0.471654 0 1.44978 0.551142 0 1.41733 0.629912 0 1.38021 0.707563 0 1.33845 0.783688 0 1.29215 0.857881 0 1.24145 0.929744 0 1.18652 0.998891 0 1.1276 1.06496 0 1.06496 1.1276 0 0.998891 1.18652 0 0.929744 1.24145 0 0.857881 1.29215 0 0.783688 1.33845 0 0.707563 1.38021 0 0.629912 1.41733 0 0.551142 1.44978 0 0.471654 1.47755 0 0.391836 1.5007 0 0.312059 1.51929 0 0.232675 1.53346 0 0.15401 1.54334 0 0.0763618 1.54913 0 0 1.55101 0 1.52807 0 0 1.52621 0.0752323 0 1.52051 0.151732 0 1.51077 0.229234 0 1.49682 0.307443 0 1.4785 0.38604 0 1.4557 0.464678 0 1.42834 0.542991 0 1.39637 0.620595 0 1.3598 0.697097 0 1.31866 0.772096 0 1.27304 0.845192 0 1.22309 0.915993 0 1.16897 0.984117 0 1.11093 1.04921 0 1.04921 1.11093 0 0.984117 1.16897 0 0.915993 1.22309 0 0.845192 1.27304 0 0.772096 1.31866 0 0.697097 1.3598 0 0.620595 1.39637 0 0.542991 1.42834 0 0.464678 1.4557 0 0.38604 1.4785 0 0.307443 1.49682 0 0.229234 1.51077 0 0.151732 1.52051 0 0.0752323 1.52621 0 0 1.52807 0 1.50709 0 0 1.50526 0.0741994 0 1.49964 0.149649 0 1.49003 0.226086 0 1.47627 0.303222 0 1.4582 0.38074 0 1.43571 0.458298 0 1.40873 0.535535 0 1.3772 0.612074 0 1.34112 0.687526 0 1.30055 0.761495 0 1.25556 0.833588 0 1.2063 0.903416 0 1.15292 0.970605 0 1.09567 1.0348 0 1.0348 1.09567 0 0.970605 1.15292 0 0.903416 1.2063 0 0.833588 1.25556 0 0.761495 1.30055 0 0.687526 1.34112 0 0.612074 1.3772 0 0.535535 1.40873 0 0.458298 1.43571 0 0.38074 1.4582 0 0.303222 1.47627 0 0.226086 1.49003 0 0.149649 1.49964 0 0.0741994 1.50526 0 0 1.50709 0 1.48788 0 0 1.48607 0.0732537 0 1.48053 0.147741 0 1.47104 0.223205 0 1.45745 0.299358 0 1.43962 0.375887 0 1.41742 0.452457 0 1.39077 0.52871 0 1.35965 0.604274 0 1.32403 0.678764 0 1.28398 0.75179 0 1.23956 0.822964 0 1.19092 0.891902 0 1.13823 0.958235 0 1.08171 1.02161 0 1.02161 1.08171 0 0.958235 1.13823 0 0.891902 1.19092 0 0.822964 1.23956 0 0.75179 1.28398 0 0.678764 1.32403 0 0.604274 1.35965 0 0.52871 1.39077 0 0.452457 1.41742 0 0.375887 1.43962 0 0.299358 1.45745 0 0.223205 1.47104 0 0.147741 1.48053 0 0.0732537 1.48607 0 0 1.48788 0 1.47032 0 0 1.46854 0.0723894 0 1.46306 0.145998 0 1.45369 0.220571 0 1.44026 0.295826 0 1.42263 0.371452 0 1.40069 0.447118 0 1.37436 0.522472 0 1.3436 0.597144 0 1.30841 0.670755 0 1.26883 0.74292 0 1.22494 0.813254 0 1.17687 0.881379 0 1.1248 0.946929 0 1.06895 1.00956 0 1.00956 1.06895 0 0.946929 1.1248 0 0.881379 1.17687 0 0.813254 1.22494 0 0.74292 1.26883 0 0.670755 1.30841 0 0.597144 1.3436 0 0.522472 1.37436 0 0.447118 1.40069 0 0.371452 1.42263 0 0.295826 1.44026 0 0.220571 1.45369 0 0.145998 1.46306 0 0.0723894 1.46854 0 0 1.47032 0 1.45431 0 0 1.45254 0.0716009 0 1.44712 0.144408 0 1.43785 0.218169 0 1.42457 0.292603 0 1.40713 0.367406 0 1.38543 0.442248 0 1.35939 0.516781 0 1.32897 0.59064 0 1.29416 0.663449 0 1.25501 0.734828 0 1.21159 0.804396 0 1.16405 0.871778 0 1.11255 0.936614 0 1.0573 0.998561 0 0.998561 1.0573 0 0.936614 1.11255 0 0.871778 1.16405 0 0.804396 1.21159 0 0.734828 1.25501 0 0.663449 1.29416 0 0.59064 1.32897 0 0.516781 1.35939 0 0.442248 1.38543 0 0.367406 1.40713 0 0.292603 1.42457 0 0.218169 1.43785 0 0.144408 1.44712 0 0.0716009 1.45254 0 0 1.45431 0 1.43972 0 0 1.43797 0.0708826 0 1.4326 0.142959 0 1.42343 0.21598 0 1.41028 0.289668 0 1.39302 0.36372 0 1.37154 0.437812 0 1.34576 0.511596 0 1.31564 0.584714 0 1.28118 0.656793 0 1.24242 0.727456 0 1.19944 0.796326 0 1.15237 0.863033 0 1.10139 0.927218 0 1.0467 0.988544 0 0.988544 1.0467 0 0.927218 1.10139 0 0.863033 1.15237 0 0.796326 1.19944 0 0.727456 1.24242 0 0.656793 1.28118 0 0.584714 1.31564 0 0.511596 1.34576 0 0.437812 1.37154 0 0.36372 1.39302 0 0.289668 1.41028 0 0.21598 1.42343 0 0.142959 1.4326 0 0.0708826 1.43797 0 0 1.43972 0 1.42644 0 0 1.42471 0.070229 0 1.41939 0.141641 0 1.4103 0.213989 0 1.39727 0.286997 0 1.38017 0.360366 0 1.35889 0.433774 0 1.33335 0.506879 0 1.3035 0.579322 0 1.26936 0.650737 0 1.23096 0.720748 0 1.18838 0.788983 0 1.14175 0.855074 0 1.09123 0.918668 0 1.03704 0.979428 0 0.979428 1.03704 0 0.918668 1.09123 0 0.855074 1.14175 0 0.788983 1.18838 0 0.720748 1.23096 0 0.650737 1.26936 0 0.579322 1.3035 0 0.506879 1.33335 0 0.433774 1.35889 0 0.360366 1.38017 0 0.286997 1.39727 0 0.213989 1.4103 0 0.141641 1.41939 0 0.070229 1.42471 0 0 1.42644 0 1.41437 0 0 1.41265 0.0696344 0 1.40738 0.140442 0 1.39836 0.212177 0 1.38544 0.284567 0 1.36849 0.357315 0 1.34738 0.430102 0 1.32206 0.502588 0 1.29247 0.574418 0 1.25862 0.645227 0 1.22054 0.714646 0 1.17832 0.782303 0 1.13208 0.847835 0 1.08199 0.910891 0 1.02826 0.971136 0 0.971136 1.02826 0 0.910891 1.08199 0 0.847835 1.13208 0 0.782303 1.17832 0 0.714646 1.22054 0 0.645227 1.25862 0 0.574418 1.29247 0 0.502588 1.32206 0 0.430102 1.34738 0 0.357315 1.36849 0 0.284567 1.38544 0 0.212177 1.39836 0 0.140442 1.40738 0 0.0696344 1.41265 0 0 1.41437 0 1.4034 0 0 1.4017 0.0690945 0 1.39646 0.139353 0 1.38752 0.210532 0 1.3747 0.282361 0 1.35788 0.354545 0 1.33694 0.426767 0 1.31181 0.49869 0 1.28245 0.569964 0 1.24886 0.640224 0 1.21107 0.709104 0 1.16918 0.776237 0 1.1233 0.841261 0 1.0736 0.903827 0 1.02029 0.963606 0 0.963606 1.02029 0 0.903827 1.0736 0 0.841261 1.1233 0 0.776237 1.16918 0 0.709104 1.21107 0 0.640224 1.24886 0 0.569964 1.28245 0 0.49869 1.31181 0 0.426767 1.33694 0 0.354545 1.35788 0 0.282361 1.3747 0 0.210532 1.38752 0 0.139353 1.39646 0 0.0690945 1.4017 0 0 1.4034 0 1.39347 0 0 1.39178 0.0686058 0 1.38659 0.138367 0 1.3777 0.209043 0 1.36498 0.280364 0 1.34827 0.352037 0 1.32748 0.423749 0 1.30253 0.495164 0 1.27338 0.565933 0 1.24002 0.635697 0 1.20251 0.70409 0 1.16091 0.770748 0 1.11536 0.835312 0 1.06601 0.897435 0 1.01307 0.956791 0 0.956791 1.01307 0 0.897435 1.06601 0 0.835312 1.11536 0 0.770748 1.16091 0 0.70409 1.20251 0 0.635697 1.24002 0 0.565933 1.27338 0 0.495164 1.30253 0 0.423749 1.32748 0 0.352037 1.34827 0 0.280364 1.36498 0 0.209043 1.3777 0 0.138367 1.38659 0 0.0686058 1.39178 0 0 1.39347 0 1.38453 0 0 1.38285 0.0681654 0 1.37769 0.137479 0 1.36886 0.207701 0 1.35622 0.278564 0 1.33962 0.349777 0 1.31896 0.421028 0 1.29417 0.491985 0 1.2652 0.5623 0 1.23206 0.631616 0 1.19479 0.69957 0 1.15346 0.7658 0 1.1082 0.829949 0 1.05917 0.891674 0 1.00657 0.950649 0 0.950649 1.00657 0 0.891674 1.05917 0 0.829949 1.1082 0 0.7658 1.15346 0 0.69957 1.19479 0 0.631616 1.23206 0 0.5623 1.2652 0 0.491985 1.29417 0 0.421028 1.31896 0 0.349777 1.33962 0 0.278564 1.35622 0 0.207701 1.36886 0 0.137479 1.37769 0 0.0681654 1.38285 0 0 1.38453 0 1.3765 0 0 1.37483 0.0677701 0 1.3697 0.136682 0 1.36092 0.206496 0 1.34835 0.276948 0 1.33185 0.347749 0 1.31131 0.418587 0 1.28666 0.489131 0 1.25786 0.559039 0 1.22492 0.627952 0 1.18786 0.695512 0 1.14677 0.761358 0 1.10177 0.825136 0 1.05302 0.886503 0 1.00073 0.945135 0 0.945135 1.00073 0 0.886503 1.05302 0 0.825136 1.10177 0 0.761358 1.14677 0 0.695512 1.18786 0 0.627952 1.22492 0 0.559039 1.25786 0 0.489131 1.28666 0 0.418587 1.31131 0 0.347749 1.33185 0 0.276948 1.34835 0 0.206496 1.36092 0 0.136682 1.3697 0 0.0677701 1.37483 0 0 1.3765 0 1.36932 0 0 1.36766 0.0674166 0 1.36255 0.135969 0 1.35382 0.205419 0 1.34132 0.275504 0 1.3249 0.345935 0 1.30447 0.416404 0 1.27995 0.486581 0 1.2513 0.556123 0 1.21853 0.624678 0 1.18166 0.691885 0 1.14079 0.757388 0 1.09603 0.820832 0 1.04753 0.881879 0 0.995514 0.940206 0 0.940206 0.995514 0 0.881879 1.04753 0 0.820832 1.09603 0 0.757388 1.14079 0 0.691885 1.18166 0 0.624678 1.21853 0 0.556123 1.2513 0 0.486581 1.27995 0 0.416404 1.30447 0 0.345935 1.3249 0 0.275504 1.34132 0 0.205419 1.35382 0 0.135969 1.36255 0 0.0674166 1.36766 0 0 1.36932 0 1.36293 0 0 1.36128 0.067102 0 1.35619 0.135334 0 1.34751 0.204461 0 1.33506 0.274218 0 1.31872 0.344321 0 1.29838 0.414461 0 1.27398 0.48431 0 1.24547 0.553528 0 1.21284 0.621763 0 1.17615 0.688657 0 1.13547 0.753853 0 1.09091 0.817002 0 1.04264 0.877764 0 0.990869 0.935819 0 0.935819 0.990869 0 0.877764 1.04264 0 0.817002 1.09091 0 0.753853 1.13547 0 0.688657 1.17615 0 0.621763 1.21284 0 0.553528 1.24547 0 0.48431 1.27398 0 0.414461 1.29838 0 0.344321 1.31872 0 0.274218 1.33506 0 0.204461 1.34751 0 0.135334 1.35619 0 0.067102 1.36128 0 0 1.36293 0 1.35728 0 0 1.35563 0.0668239 0 1.35057 0.134773 0 1.34192 0.203613 0 1.32952 0.273082 0 1.31325 0.342894 0 1.293 0.412742 0 1.2687 0.482302 0 1.2403 0.551233 0 1.20782 0.619185 0 1.17127 0.685802 0 1.13076 0.750728 0 1.08639 0.813615 0 1.03832 0.874125 0 0.986761 0.931939 0 0.931939 0.986761 0 0.874125 1.03832 0 0.813615 1.08639 0 0.750728 1.13076 0 0.685802 1.17127 0 0.619185 1.20782 0 0.551233 1.2403 0 0.482302 1.2687 0 0.412742 1.293 0 0.342894 1.31325 0 0.273082 1.32952 0 0.203613 1.34192 0 0.134773 1.35057 0 0.0668239 1.35563 0 0 1.35728 0 1.35233 0 0 1.35069 0.0665802 0 1.34565 0.134282 0 1.33703 0.20287 0 1.32468 0.272086 0 1.30846 0.341643 0 1.28829 0.411237 0 1.26407 0.480543 0 1.23578 0.549223 0 1.20341 0.616927 0 1.167 0.683301 0 1.12664 0.74799 0 1.08243 0.810648 0 1.03454 0.870937 0 0.983162 0.928541 0 0.928541 0.983162 0 0.870937 1.03454 0 0.810648 1.08243 0 0.74799 1.12664 0 0.683301 1.167 0 0.616927 1.20341 0 0.549223 1.23578 0 0.480543 1.26407 0 0.411237 1.28829 0 0.341643 1.30846 0 0.272086 1.32468 0 0.20287 1.33703 0 0.134282 1.34565 0 0.0665802 1.35069 0 0 1.35233 0 1.34804 0 0 1.34641 0.066369 0 1.34138 0.133856 0 1.33279 0.202227 0 1.32047 0.271223 0 1.30431 0.34056 0 1.2842 0.409933 0 1.26006 0.479019 0 1.23186 0.547481 0 1.19959 0.61497 0 1.1633 0.681134 0 1.12306 0.745618 0 1.07899 0.808077 0 1.03125 0.868175 0 0.980045 0.925596 0 0.925596 0.980045 0 0.868175 1.03125 0 0.808077 1.07899 0 0.745618 1.12306 0 0.681134 1.1633 0 0.61497 1.19959 0 0.547481 1.23186 0 0.479019 1.26006 0 0.409933 1.2842 0 0.34056 1.30431 0 0.271223 1.32047 0 0.202227 1.33279 0 0.133856 1.34138 0 0.066369 1.34641 0 0 1.34804 0 1.34438 0 0 1.34275 0.0661885 0 1.33773 0.133492 0 1.32916 0.201677 0 1.31688 0.270485 0 1.30077 0.339634 0 1.28071 0.408818 0 1.25664 0.477717 0 1.22851 0.545992 0 1.19633 0.613298 0 1.16014 0.679281 0 1.12001 0.743591 0 1.07606 0.80588 0 1.02845 0.865815 0 0.977379 0.923079 0 0.923079 0.977379 0 0.865815 1.02845 0 0.80588 1.07606 0 0.743591 1.12001 0 0.679281 1.16014 0 0.613298 1.19633 0 0.545992 1.22851 0 0.477717 1.25664 0 0.408818 1.28071 0 0.339634 1.30077 0 0.270485 1.31688 0 0.201677 1.32916 0 0.133492 1.33773 0 0.0661885 1.34275 0 0 1.34438 0 1.34129 0 0 1.33967 0.0660368 0 1.33466 0.133186 0 1.32612 0.201215 0 1.31387 0.269865 0 1.29778 0.338855 0 1.27777 0.407881 0 1.25375 0.476622 0 1.22569 0.544741 0 1.19359 0.611892 0 1.15748 0.677724 0 1.11744 0.741886 0 1.07359 0.804032 0 1.02609 0.86383 0 0.975139 0.920963 0 0.920963 0.975139 0 0.86383 1.02609 0 0.804032 1.07359 0 0.741886 1.11744 0 0.677724 1.15748 0 0.611892 1.19359 0 0.544741 1.22569 0 0.476622 1.25375 0 0.407881 1.27777 0 0.338855 1.29778 0 0.269865 1.31387 0 0.201215 1.32612 0 0.133186 1.33466 0 0.0660368 1.33967 0 0 1.34129 0 1.33876 0 0 1.33713 0.065912 0 1.33214 0.132934 0 1.32361 0.200835 0 1.31138 0.269355 0 1.29533 0.338214 0 1.27536 0.40711 0 1.25138 0.475721 0 1.22338 0.543711 0 1.19133 0.610735 0 1.15529 0.676443 0 1.11533 0.740483 0 1.07156 0.802512 0 1.02415 0.862197 0 0.973295 0.919222 0 0.919222 0.973295 0 0.862197 1.02415 0 0.802512 1.07156 0 0.740483 1.11533 0 0.676443 1.15529 0 0.610735 1.19133 0 0.543711 1.22338 0 0.475721 1.25138 0 0.40711 1.27536 0 0.338214 1.29533 0 0.269355 1.31138 0 0.200835 1.32361 0 0.132934 1.33214 0 0.065912 1.33713 0 0 1.33876 0 1.33674 0 0 1.33512 0.0658126 0 1.33013 0.132734 0 1.32161 0.200532 0 1.3094 0.268949 0 1.29338 0.337704 0 1.27343 0.406496 0 1.2495 0.475003 0 1.22153 0.542891 0 1.18954 0.609815 0 1.15355 0.675423 0 1.11365 0.739367 0 1.06995 0.801302 0 1.02261 0.860897 0 0.971828 0.917836 0 0.917836 0.971828 0 0.860897 1.02261 0 0.801302 1.06995 0 0.739367 1.11365 0 0.675423 1.15355 0 0.609815 1.18954 0 0.542891 1.22153 0 0.475003 1.2495 0 0.406496 1.27343 0 0.337704 1.29338 0 0.268949 1.3094 0 0.200532 1.32161 0 0.132734 1.33013 0 0.0658126 1.33512 0 0 1.33674 0 1.33521 0 0 1.33359 0.0657374 0 1.32861 0.132582 0 1.3201 0.200303 0 1.30791 0.268642 0 1.2919 0.337319 0 1.27198 0.406032 0 1.24807 0.474461 0 1.22014 0.542271 0 1.18818 0.609118 0 1.15223 0.674652 0 1.11238 0.738523 0 1.06873 0.800387 0 1.02144 0.859914 0 0.970718 0.916788 0 0.916788 0.970718 0 0.859914 1.02144 0 0.800387 1.06873 0 0.738523 1.11238 0 0.674652 1.15223 0 0.609118 1.18818 0 0.542271 1.22014 0 0.474461 1.24807 0 0.406032 1.27198 0 0.337319 1.2919 0 0.268642 1.30791 0 0.200303 1.3201 0 0.132582 1.32861 0 0.0657374 1.33359 0 0 1.33521 0 1.33415 0 0 1.33254 0.0656853 0 1.32756 0.132477 0 1.31906 0.200144 0 1.30687 0.268429 0 1.29088 0.337051 0 1.27097 0.40571 0 1.24708 0.474084 0 1.21917 0.541841 0 1.18724 0.608635 0 1.15132 0.674116 0 1.11149 0.737937 0 1.06788 0.799752 0 1.02063 0.859231 0 0.969948 0.91606 0 0.91606 0.969948 0 0.859231 1.02063 0 0.799752 1.06788 0 0.737937 1.11149 0 0.674116 1.15132 0 0.608635 1.18724 0 0.541841 1.21917 0 0.474084 1.24708 0 0.40571 1.27097 0 0.337051 1.29088 0 0.268429 1.30687 0 0.200144 1.31906 0 0.132477 1.32756 0 0.0656853 1.33254 0 0 1.33415 0 1.33354 0 0 1.33192 0.0656548 0 1.32694 0.132416 0 1.31844 0.200051 0 1.30627 0.268304 0 1.29028 0.336895 0 1.27038 0.405522 0 1.2465 0.473865 0 1.2186 0.54159 0 1.18669 0.608353 0 1.15078 0.673804 0 1.11098 0.737595 0 1.06738 0.799381 0 1.02016 0.858833 0 0.969498 0.915636 0 0.915636 0.969498 0 0.858833 1.02016 0 0.799381 1.06738 0 0.737595 1.11098 0 0.673804 1.15078 0 0.608353 1.18669 0 0.54159 1.2186 0 0.473865 1.2465 0 0.405522 1.27038 0 0.336895 1.29028 0 0.268304 1.30627 0 0.200051 1.31844 0 0.132416 1.32694 0 0.0656548 1.33192 0 0 1.33354 0 1.33333 0 0 1.33172 0.0656449 0 1.32674 0.132396 0 1.31824 0.200021 0 1.30607 0.268264 0 1.29008 0.336844 0 1.27019 0.40546 0 1.24631 0.473793 0 1.21842 0.541508 0 1.18651 0.608261 0 1.15061 0.673702 0 1.11081 0.737483 0 1.06722 0.79926 0 1.02 0.858703 0 0.969352 0.915497 0 0.915497 0.969352 0 0.858703 1.02 0 0.79926 1.06722 0 0.737483 1.11081 0 0.673702 1.15061 0 0.608261 1.18651 0 0.541508 1.21842 0 0.473793 1.24631 0 0.40546 1.27019 0 0.336844 1.29008 0 0.268264 1.30607 0 0.200021 1.31824 0 0.132396 1.32674 0 0.0656449 1.33172 0 0 1.33333 0 1.66667 0 -4.68144e-16 1.66465 0.0820561 -3.63471e-16 1.65843 0.165495 -3.05608e-16 1.64781 0.250026 -2.79775e-16 1.63258 0.335329 -2.69798e-16 1.6126 0.421055 -2.58227e-16 1.58774 0.506825 -2.26529e-16 1.55789 0.592241 -1.62085e-16 1.52302 0.676885 -6.73034e-17 1.48313 0.760326 5.28995e-17 1.43826 0.842127 1.93157e-16 1.38851 0.921854 3.47717e-16 1.33403 0.999076 5.10427e-16 1.275 1.07338 6.71235e-16 1.21169 1.14437 8.15161e-16 1.14437 1.21169 9.26923e-16 1.07338 1.275 9.91502e-16 0.999076 1.33403 9.9439e-16 0.921854 1.38851 9.23491e-16 0.842127 1.43826 7.92509e-16 0.760326 1.48313 6.34426e-16 0.676885 1.52302 4.8203e-16 0.592241 1.55789 3.6693e-16 0.506825 1.58774 3.19122e-16 0.421055 1.6126 3.60976e-16 0.335329 1.63258 4.71811e-16 0.250026 1.64781 6.13371e-16 0.165495 1.65843 7.49375e-16 0.0820561 1.66465 8.45958e-16 0 1.66667 8.71947e-16 1.63374 0 -2.94455e-16 1.63176 0.0804349 -2.19296e-16 1.62566 0.162225 -1.9976e-16 1.61525 0.245086 -2.15415e-16 1.60033 0.328704 -2.43984e-16 1.58074 0.412736 -2.61513e-16 1.55637 0.496812 -2.42653e-16 1.52711 0.58054 -1.72094e-16 1.49293 0.663511 -5.9467e-17 1.45383 0.745304 8.12809e-17 1.40985 0.825489 2.35352e-16 1.36108 0.90364 3.87291e-16 1.30767 0.979337 5.21364e-16 1.24981 1.05217 6.27527e-16 1.18775 1.12176 7.03493e-16 1.12176 1.18775 7.47755e-16 1.05217 1.24981 7.59114e-16 0.979337 1.30767 7.36695e-16 0.90364 1.36108 6.8058e-16 0.825489 1.40985 6.00426e-16 0.745304 1.45383 5.12971e-16 0.663511 1.49293 4.34726e-16 0.58054 1.52711 3.81548e-16 0.496812 1.55637 3.68427e-16 0.412736 1.58074 4.05986e-16 0.328704 1.60033 4.79672e-16 0.245086 1.61525 5.6477e-16 0.162225 1.62566 6.37918e-16 0.0804349 1.63176 6.77383e-16 0 1.63374 6.63227e-16 1.60363 0 -1.64335e-16 1.60168 0.0789525 -1.1261e-16 1.5957 0.159235 -1.17834e-16 1.58548 0.240569 -1.57564e-16 1.57084 0.322646 -2.07368e-16 1.55161 0.405129 -2.41014e-16 1.52768 0.487656 -2.3078e-16 1.49897 0.569841 -1.60781e-16 1.46542 0.651283 -4.43207e-17 1.42704 0.731568 1.00189e-16 1.38386 0.810276 2.53299e-16 1.33599 0.886986 3.94784e-16 1.28357 0.961288 5.04229e-16 1.22678 1.03278 5.72202e-16 1.16586 1.10109 6.04019e-16 1.10109 1.16586 6.06371e-16 1.03278 1.22678 5.86258e-16 0.961288 1.28357 5.50876e-16 0.886986 1.33599 5.07462e-16 0.810276 1.38386 4.62647e-16 0.731568 1.42704 4.22498e-16 0.651283 1.46542 3.92853e-16 0.569841 1.49897 3.7925e-16 0.487656 1.52768 3.8686e-16 0.405129 1.55161 4.18705e-16 0.322646 1.57084 4.64944e-16 0.240569 1.58548 5.10649e-16 0.159235 1.5957 5.41779e-16 0.0789525 1.60168 5.45336e-16 0 1.60363 5.09457e-16 1.57612 0 -7.05325e-17 1.57421 0.0775983 -3.65767e-17 1.56833 0.156504 -5.58568e-17 1.55829 0.236443 -1.06495e-16 1.54389 0.317112 -1.64694e-16 1.525 0.398181 -2.04923e-16 1.50148 0.479292 -2.00227e-16 1.47326 0.560067 -1.35589e-16 1.44028 0.640112 -2.53503e-17 1.40256 0.71902 1.10989e-16 1.36013 0.796378 2.5286e-16 1.31308 0.871773 3.7891e-16 1.26155 0.9448 4.67656e-16 1.20574 1.01507 5.10664e-16 1.14586 1.0822 5.16957e-16 1.0822 1.14586 4.97154e-16 1.01507 1.20574 4.62159e-16 0.9448 1.26155 4.22994e-16 0.871773 1.31308 3.90214e-16 0.796378 1.36013 3.68281e-16 0.71902 1.40256 3.56969e-16 0.640112 1.44028 3.55843e-16 0.560067 1.47326 3.64391e-16 0.479292 1.50148 3.8203e-16 0.398181 1.525 4.07435e-16 0.317112 1.54389 4.34295e-16 0.236443 1.55829 4.54438e-16 0.156504 1.56833 4.60239e-16 0.0775983 1.57421 4.44694e-16 0 1.57612 4.01463e-16 1.55101 0 -5.79938e-18 1.54913 0.0763618 1.56404e-17 1.54334 0.15401 -9.85583e-18 1.53346 0.232675 -6.2482e-17 1.51929 0.312059 -1.20705e-16 1.5007 0.391836 -1.61437e-16 1.47755 0.471654 -1.60309e-16 1.44978 0.551142 -1.03963e-16 1.41733 0.629912 -6.04179e-18 1.38021 0.707563 1.15044e-16 1.33845 0.783688 2.39894e-16 1.29215 0.857881 3.48379e-16 1.24145 0.929744 4.20278e-16 1.18652 0.998891 4.4832e-16 1.1276 1.06496 4.42527e-16 1.06496 1.1276 4.14488e-16 0.998891 1.18652 3.76047e-16 0.929744 1.24145 3.39109e-16 0.857881 1.29215 3.14915e-16 0.783688 1.33845 3.06437e-16 0.707563 1.38021 3.10344e-16 0.629912 1.41733 3.2313e-16 0.551142 1.44978 3.41326e-16 0.471654 1.47755 3.61551e-16 0.391836 1.5007 3.80482e-16 0.312059 1.51929 3.94396e-16 0.232675 1.53346 3.99569e-16 0.15401 1.54334 3.92579e-16 0.0763618 1.54913 3.7033e-16 0 1.55101 3.3007e-16 1.52807 0 3.71143e-17 1.52621 0.0752323 5.08779e-17 1.52051 0.151732 2.41421e-17 1.51077 0.229234 -2.57987e-17 1.49682 0.307443 -8.01466e-17 1.4785 0.38604 -1.18749e-16 1.4557 0.464678 -1.20345e-16 1.42834 0.542991 -7.3344e-17 1.39637 0.620595 1.01191e-17 1.3598 0.697097 1.13721e-16 1.31866 0.772096 2.20261e-16 1.27304 0.845192 3.11901e-16 1.22309 0.915993 3.70729e-16 1.16897 0.984117 3.90575e-16 1.11093 1.04921 3.80946e-16 1.04921 1.11093 3.52759e-16 0.984117 1.16897 3.17148e-16 0.915993 1.22309 2.85284e-16 0.845192 1.27304 2.67642e-16 0.772096 1.31866 2.66222e-16 0.697097 1.3598 2.76584e-16 0.620595 1.39637 2.94144e-16 0.542991 1.42834 3.14407e-16 0.464678 1.4557 3.33035e-16 0.38604 1.4785 3.46148e-16 0.307443 1.49682 3.51916e-16 0.229234 1.51077 3.49474e-16 0.151732 1.52051 3.3808e-16 0.0752323 1.52621 3.17121e-16 0 1.52807 2.86104e-16 1.50709 0 6.54502e-17 1.50526 0.0741994 7.59635e-17 1.49964 0.149649 5.01049e-17 1.49003 0.226086 3.28262e-18 1.47627 0.303222 -4.77529e-17 1.4582 0.38074 -8.50416e-17 1.43571 0.458298 -8.96318e-17 1.40873 0.535535 -5.11625e-17 1.3772 0.612074 1.9653e-17 1.34112 0.687526 1.08381e-16 1.30055 0.761495 1.99814e-16 1.25556 0.833588 2.78175e-16 1.2063 0.903416 3.27627e-16 1.15292 0.970605 3.42825e-16 1.09567 1.0348 3.3243e-16 1.0348 1.09567 3.06356e-16 0.970605 1.15292 2.74705e-16 0.903416 1.2063 2.47598e-16 0.833588 1.25556 2.34491e-16 0.761495 1.30055 2.36761e-16 0.687526 1.34112 2.49659e-16 0.612074 1.3772 2.68318e-16 0.535535 1.40873 2.87983e-16 0.458298 1.43571 3.0408e-16 0.38074 1.4582 3.12723e-16 0.303222 1.47627 3.13514e-16 0.226086 1.49003 3.07575e-16 0.149649 1.49964 2.96021e-16 0.0741994 1.50526 2.79944e-16 0 1.50709 2.60397e-16 1.48788 0 8.47462e-17 1.48607 0.0732537 9.58501e-17 1.48053 0.147741 7.09194e-17 1.47104 0.223205 2.47756e-17 1.45745 0.299358 -2.64595e-17 1.43962 0.375887 -6.54905e-17 1.41742 0.452457 -7.4057e-17 1.39077 0.52871 -4.20706e-17 1.35965 0.604274 2.04812e-17 1.32403 0.678764 1.00077e-16 1.28398 0.75179 1.82469e-16 1.23956 0.822964 2.52872e-16 1.19092 0.891902 2.96445e-16 1.13823 0.958235 3.08254e-16 1.08171 1.02161 2.96587e-16 1.02161 1.08171 2.70912e-16 0.958235 1.13823 2.40864e-16 0.891902 1.19092 2.16091e-16 0.822964 1.23956 2.05576e-16 0.75179 1.28398 2.10297e-16 0.678764 1.32403 2.25172e-16 0.604274 1.35965 2.45015e-16 0.52871 1.39077 2.64771e-16 0.452457 1.41742 2.7959e-16 0.375887 1.43962 2.85495e-16 0.299358 1.45745 2.83234e-16 0.223205 1.47104 2.75536e-16 0.147741 1.48053 2.65027e-16 0.0732537 1.48607 2.5418e-16 0 1.48788 2.45301e-16 1.47032 0 9.67396e-17 1.46854 0.0723894 1.11308e-16 1.46306 0.145998 8.70606e-17 1.45369 0.220571 3.93323e-17 1.44026 0.295826 -1.51852e-17 1.42263 0.371452 -5.85703e-17 1.40069 0.447118 -7.18874e-17 1.37436 0.522472 -4.45229e-17 1.3436 0.597144 1.36491e-17 1.30841 0.670755 8.91646e-17 1.26883 0.74292 1.67831e-16 1.22494 0.813254 2.34919e-16 1.17687 0.881379 2.75639e-16 1.1248 0.946929 2.8511e-16 1.06895 1.00956 2.71668e-16 1.00956 1.06895 2.44825e-16 0.946929 1.1248 2.14258e-16 0.881379 1.17687 1.89643e-16 0.813254 1.22494 1.79977e-16 0.74292 1.26883 1.86035e-16 0.670755 1.30841 2.02373e-16 0.597144 1.3436 2.23448e-16 0.522472 1.37436 2.43865e-16 0.447118 1.40069 2.58449e-16 0.371452 1.42263 2.63062e-16 0.295826 1.44026 2.5929e-16 0.220571 1.45369 2.51102e-16 0.145998 1.46306 2.42272e-16 0.0723894 1.46854 2.36334e-16 0 1.47032 2.36551e-16 1.45431 0 1.02653e-16 1.45254 0.0716009 1.2254e-16 1.44712 0.144408 9.86772e-17 1.43785 0.218169 4.76911e-17 1.42457 0.292603 -1.2305e-17 1.40713 0.367406 -6.18485e-17 1.38543 0.442248 -8.03594e-17 1.35939 0.516781 -5.61355e-17 1.32897 0.59064 6.25145e-19 1.29416 0.663449 7.59042e-17 1.25501 0.734828 1.5492e-16 1.21159 0.804396 2.22328e-16 1.16405 0.871778 2.62717e-16 1.11255 0.936614 2.70975e-16 1.0573 0.998561 2.55741e-16 0.998561 1.0573 2.26874e-16 0.936614 1.11255 1.94394e-16 0.871778 1.16405 1.68328e-16 0.804396 1.21159 1.57986e-16 0.734828 1.25501 1.64121e-16 0.663449 1.29416 1.81004e-16 0.59064 1.32897 2.0281e-16 0.516781 1.35939 2.23865e-16 0.442248 1.38543 2.38731e-16 0.367406 1.40713 2.4311e-16 0.292603 1.42457 2.39111e-16 0.218169 1.43785 2.31483e-16 0.144408 1.44712 2.24733e-16 0.0716009 1.45254 2.23064e-16 0 1.45431 2.30344e-16 1.43972 0 1.0371e-16 1.43797 0.0708826 1.29751e-16 1.4326 0.142959 1.05918e-16 1.42343 0.21598 5.05902e-17 1.41028 0.289668 -1.61943e-17 1.39302 0.36372 -7.28925e-17 1.37154 0.437812 -9.67098e-17 1.34576 0.511596 -7.45247e-17 1.31564 0.584714 -1.71224e-17 1.28118 0.656793 6.05576e-17 1.24242 0.727456 1.42757e-16 1.19944 0.796326 2.13113e-16 1.15237 0.863033 2.55183e-16 1.10139 0.927218 2.6343e-16 1.0467 0.988544 2.46875e-16 0.988544 1.0467 2.15831e-16 0.927218 1.10139 1.80783e-16 0.863033 1.15237 1.52221e-16 0.796326 1.19944 1.39897e-16 0.727456 1.24242 1.44701e-16 0.656793 1.28118 1.60809e-16 0.584714 1.31564 1.82292e-16 0.511596 1.34576 2.03372e-16 0.437812 1.37154 2.18507e-16 0.36372 1.39302 2.23331e-16 0.289668 1.41028 2.20122e-16 0.21598 1.42343 2.13892e-16 0.142959 1.4326 2.09386e-16 0.0708826 1.43797 2.11027e-16 0 1.43972 2.22875e-16 1.42644 0 1.01134e-16 1.42471 0.070229 1.33144e-16 1.41939 0.141641 1.08931e-16 1.4103 0.213989 4.87681e-17 1.39727 0.286997 -2.52282e-17 1.38017 0.360366 -8.92697e-17 1.35889 0.433774 -1.18175e-16 1.33335 0.506879 -9.73063e-17 1.3035 0.579322 -3.81252e-17 1.26936 0.650737 4.3386e-17 1.23096 0.720748 1.30362e-16 1.18838 0.788983 2.05287e-16 1.14175 0.855074 2.50545e-16 1.09123 0.918668 2.60056e-16 1.03704 0.979428 2.43139e-16 0.979428 1.03704 2.10474e-16 0.918668 1.09123 1.72933e-16 0.855074 1.14175 1.41396e-16 0.788983 1.18838 1.26003e-16 0.720748 1.23096 1.27923e-16 0.650737 1.26936 1.41532e-16 0.579322 1.3035 1.61087e-16 0.506879 1.33335 1.80985e-16 0.433774 1.35889 1.95848e-16 0.360366 1.38017 2.01412e-16 0.286997 1.39727 1.9975e-16 0.213989 1.4103 1.95539e-16 0.141641 1.41939 1.93208e-16 0.070229 1.42471 1.9688e-16 0 1.42644 2.10339e-16 1.41437 0 9.61337e-17 1.41265 0.0696344 1.32925e-16 1.40738 0.140442 1.07869e-16 1.39836 0.212177 4.2964e-17 1.38544 0.284567 -3.77881e-17 1.36849 0.357315 -1.08561e-16 1.34738 0.430102 -1.42007e-16 1.32206 0.502588 -1.2211e-16 1.29247 0.574418 -6.09211e-17 1.25862 0.645227 2.46536e-17 1.22054 0.714646 1.16768e-16 1.17832 0.782303 1.96877e-16 1.13208 0.847835 2.46323e-16 1.08199 0.910891 2.5844e-16 1.02826 0.971136 2.42591e-16 0.971136 1.02826 2.09557e-16 0.910891 1.08199 1.70322e-16 0.847835 1.13208 1.35896e-16 0.782303 1.17832 1.16568e-16 0.714646 1.22054 1.13919e-16 0.645227 1.25862 1.2292e-16 0.574418 1.29247 1.38411e-16 0.502588 1.32206 1.55349e-16 0.430102 1.34738 1.68877e-16 0.357315 1.36849 1.75096e-16 0.284567 1.38544 1.7547e-16 0.212177 1.39836 1.73682e-16 0.140442 1.40738 1.73221e-16 0.0696344 1.41265 1.77339e-16 0 1.41437 1.89019e-16 1.4034 0 8.94122e-17 1.4017 0.0690945 1.29322e-16 1.39646 0.139353 1.03051e-16 1.38752 0.210532 3.39505e-17 1.3747 0.282361 -5.24935e-17 1.35788 0.354545 -1.28856e-16 1.33694 0.426767 -1.66092e-16 1.31181 0.49869 -1.47083e-16 1.28245 0.569964 -8.4286e-17 1.24886 0.640224 4.73303e-18 1.21107 0.709104 1.01424e-16 1.16918 0.776237 1.86501e-16 1.1233 0.841261 2.40548e-16 1.0736 0.903827 2.56347e-16 1.02029 0.963606 2.43001e-16 0.963606 1.02029 2.11058e-16 0.903827 1.0736 1.71284e-16 0.841261 1.1233 1.34485e-16 0.776237 1.16918 1.1081e-16 0.709104 1.21107 1.02323e-16 0.640224 1.24886 1.04944e-16 0.569964 1.28245 1.14452e-16 0.49869 1.31181 1.26707e-16 0.426767 1.33694 1.37708e-16 0.354545 1.35788 1.44154e-16 0.282361 1.3747 1.46615e-16 0.210532 1.38752 1.4728e-16 0.139353 1.39646 1.48229e-16 0.0690945 1.4017 1.51403e-16 0 1.4034 1.5859e-16 1.39347 0 8.10131e-17 1.39178 0.0686058 1.22593e-16 1.38659 0.138367 9.5005e-17 1.3777 0.209043 2.25438e-17 1.36498 0.280364 -6.82738e-17 1.34827 0.352037 -1.48909e-16 1.32748 0.423749 -1.89135e-16 1.30253 0.495164 -1.71044e-16 1.27338 0.565933 -1.07306e-16 1.24002 0.635697 -1.58626e-17 1.20251 0.70409 8.43262e-17 1.16091 0.770748 1.73543e-16 1.11536 0.835312 2.31919e-16 1.06601 0.897435 2.51776e-16 1.01307 0.956791 2.41753e-16 0.956791 1.01307 2.11941e-16 0.897435 1.06601 1.72655e-16 0.835312 1.11536 1.34271e-16 0.770748 1.16091 1.06582e-16 0.70409 1.20251 9.21141e-17 0.635697 1.24002 8.78569e-17 0.565933 1.27338 9.06537e-17 0.495164 1.30253 9.73897e-17 0.423749 1.32748 1.05038e-16 0.352037 1.34827 1.10996e-16 0.280364 1.36498 1.14936e-16 0.209043 1.3777 1.17511e-16 0.138367 1.38659 1.19347e-16 0.0686058 1.39178 1.21036e-16 0 1.39347 1.23132e-16 1.38453 0 7.09357e-17 1.38285 0.0681654 1.13e-16 1.37769 0.137479 8.42775e-17 1.36886 0.207701 9.56286e-18 1.35622 0.278564 -8.40787e-17 1.33962 0.349777 -1.67517e-16 1.31896 0.421028 -2.09895e-16 1.29417 0.491985 -1.92858e-16 1.2652 0.5623 -1.29086e-16 1.23206 0.631616 -3.66106e-17 1.19479 0.69957 6.55074e-17 1.15346 0.7658 1.57437e-16 1.1082 0.829949 2.19178e-16 1.05917 0.891674 2.4274e-16 1.0